 Gaussian 09, Revision D.01,
 Gaussian 09:  ES64L-G09RevD.01 24-Apr-2013

 ---------------------------------------------------------------
 #p B3LYP/6-31G* em=gd3 opt(ts,calcfc,noeigentest) freq temp=300
 ---------------------------------------------------------------

 -----
 Title
 -----
 Symbolic Z-matrix:
 Charge = -1 Multiplicity = 1

 SCF Done:  E(RB3LYP) =  -3071.83587012     A.U. after   14 cycles
 SCF Done:  E(RB3LYP) =  -3071.86270425     A.U. after   13 cycles
 SCF Done:  E(RB3LYP) =  -3071.87633471     A.U. after   13 cycles
 SCF Done:  E(RB3LYP) =  -3071.88011113     A.U. after   13 cycles
 SCF Done:  E(RB3LYP) =  -3071.88482078     A.U. after   13 cycles
 SCF Done:  E(RB3LYP) =  -3071.88533881     A.U. after   12 cycles
 SCF Done:  E(RB3LYP) =  -3071.88536591     A.U. after    9 cycles
 SCF Done:  E(RB3LYP) =  -3071.88537249     A.U. after    9 cycles
 SCF Done:  E(RB3LYP) =  -3071.88537307     A.U. after    8 cycles
 SCF Done:  E(RB3LYP) =  -3071.88537482     A.U. after    8 cycles
 SCF Done:  E(RB3LYP) =  -3071.88537235     A.U. after    8 cycles
 SCF Done:  E(RB3LYP) =  -3071.88536978     A.U. after    8 cycles
 SCF Done:  E(RB3LYP) =  -3071.88537379     A.U. after    8 cycles
 SCF Done:  E(RB3LYP) =  -3071.88537745     A.U. after    8 cycles
 SCF Done:  E(RB3LYP) =  -3071.88516737     A.U. after   11 cycles
 SCF Done:  E(RB3LYP) =  -3071.88535938     A.U. after   11 cycles
 SCF Done:  E(RB3LYP) =  -3071.88537627     A.U. after    8 cycles
 Optimization completed.
    -- Stationary point found.
 Normal termination of Gaussian 09 at Sun Mar 24 12:59:22 2019.

 --------------------------------------------------------------------
 #P Geom=AllCheck Guess=TCheck SCRF=Check GenChk RB3LYP/6-31G(d) Freq
 --------------------------------------------------------------------

 Structure from the checkpoint file:  "/mnt/e/scratch/Gau-3442.chk"
 -----
 Title
 -----
 Charge = -1 Multiplicity = 1

                         Standard orientation:
 ---------------------------------------------------------------------
 Center     Atomic      Atomic             Coordinates (Angstroms)
 Number     Number       Type             X           Y           Z
 ---------------------------------------------------------------------
      1          6           0        0.773343    0.000406    0.000047
      2          1           0        0.768123    0.076412    1.071927
      3          1           0        0.768113    0.892143   -0.600117
      4          1           0        0.768232   -0.965314   -0.469776
      5         17           0        3.151635   -0.000170   -0.000069
      6         35           0       -1.729209   -0.000080   -0.000033
 ---------------------------------------------------------------------

 SCF Done:  E(RB3LYP) =  -3071.88537627     A.U. after    1 cycles

 The electronic state is 1-A.
 Alpha  occ. eigenvalues -- -482.67116-101.29895 -61.63363 -56.15349 -56.15179
 Alpha  occ. eigenvalues --  -56.15179 -10.09275  -9.21269  -8.34462  -6.97324
 Alpha  occ. eigenvalues --   -6.96901  -6.96901  -6.29392  -6.28842  -6.28842
 Alpha  occ. eigenvalues --   -2.41036  -2.40890  -2.40889  -2.40452  -2.40452
 Alpha  occ. eigenvalues --   -0.58084  -0.53727  -0.49539  -0.29240  -0.29193
 Alpha  occ. eigenvalues --   -0.15189  -0.08914  -0.08912  -0.07476  -0.07473
 Alpha  occ. eigenvalues --   -0.06973
 Alpha virt. eigenvalues --    0.12589   0.24969   0.31724   0.31756   0.45448
 Alpha virt. eigenvalues --    0.56997   0.61414   0.61436   0.64243   0.65036
 Alpha virt. eigenvalues --    0.65041   0.68740   0.68750   0.69851   0.69870

 Mulliken charges:
               1
     1  C   -0.365008
     2  H    0.214913
     3  H    0.214887
     4  H    0.215158
     5  Cl  -0.645767
     6  Br  -0.634182
 Sum of Mulliken charges =  -1.00000

 Dipole moment (field-independent basis, Debye):
    X=             -3.5749    Y=              0.0018    Z=              0.0005  Tot=              3.5749
 Quadrupole moment (field-independent basis, Debye-Ang):
   XX=            -82.4130   YY=            -41.2601   ZZ=            -41.2676
   XY=              0.0020   XZ=              0.0013   YZ=              0.0010

  Exact polarizability: 116.618  -0.001  28.982  -0.001  -0.003  28.976
 Approx polarizability: 188.639  -0.002  41.093  -0.001  -0.003  41.086

 ******    1 imaginary frequencies (negative Signs) ******

                      1                      2                      3
                      A                      A                      A
 Frequencies --   -317.2540               172.5739               180.1848
 Red. masses --     12.8947                35.6794                 4.1933
 Frc consts  --      0.7647                 0.6261                 0.0802
 IR Inten    --    924.1859                 5.3766                 9.9009

                      4                      5                      6
                      A                      A                      A
 Frequencies --    185.8984               910.4039               915.6309
 Red. masses --      4.1987                 1.0110                 1.0110
 Frc consts  --      0.0855                 0.4937                 0.4994
 IR Inten    --      9.8712                 0.0144                 0.0788

                      7                      8                      9
                      A                      A                      A
 Frequencies --    998.0958              1422.0301              1424.8033
 Red. masses --      1.0364                 1.1037                 1.1032
 Frc consts  --      0.6083                 1.3149                 1.3195
 IR Inten    --    107.2300                 4.5211                 4.5185

                     10                     11                     12
                      A                      A                      A
 Frequencies --   3227.4686              3420.5832              3427.2093
 Red. masses --      1.0079                 1.1230                 1.1232
 Frc consts  --      6.1856                 7.7419                 7.7730
 IR Inten    --      0.1738                 1.0658                 1.1244

 - Thermochemistry -
 -------------------
 Temperature   300.000 Kelvin.  Pressure   1.00000 Atm.
 Atom     1 has atomic number  6 and mass  12.00000

 Molecular mass:   128.91066 amu.
 Principal axes and moments of inertia in atomic units:
                           1         2         3
     Eigenvalues --    12.464982115.340752115.35419
           X            1.00000   0.00000   0.00000
           Y            0.00000   1.00000  -0.00009
           Z            0.00000   0.00009   1.00000
 This molecule is an asymmetric top.
 Rotational symmetry number  1.
 Rotational temperatures (Kelvin)      6.94857     0.04095     0.04095
 Rotational constants (GHZ):         144.78490     0.85317     0.85316
    1 imaginary frequencies ignored.
 Zero-point vibrational energy      97405.2 (Joules/Mol)
                                   23.28041 (Kcal/Mol)
 Warning -- explicit consideration of   3 degrees of freedom as
           vibrations may cause significant error
 Vibrational temperatures:    248.30   259.25   267.47  1309.87  1317.39
          (Kelvin)           1436.04  2045.98  2049.97  4643.60  4921.45
                             4930.98

 Zero-point correction=                           0.037100 (Hartree/Particle)
 Thermal correction to Energy=                    0.041905
 Thermal correction to Enthalpy=                  0.042855
 Thermal correction to Gibbs Free Energy=         0.007722
 Sum of electronic and zero-point Energies=          -3071.848277
 Sum of electronic and thermal Energies=             -3071.843471
 Sum of electronic and thermal Enthalpies=           -3071.842521
 Sum of electronic and thermal Free Energies=        -3071.877655

                     E (Thermal)             CV                S
                      KCal/Mol        Cal/Mol-Kelvin    Cal/Mol-Kelvin
 Total                   26.296             13.136             73.488
 Electronic               0.000              0.000              0.000
 Translational            0.894              2.981             40.506
 Rotational               0.894              2.981             25.544
 Vibrational             24.507              7.174              7.438
 Vibration     1          0.630              1.878              2.419
 Vibration     2          0.633              1.868              2.338
 Vibration     3          0.635              1.861              2.280

 Normal termination of Gaussian 09 at Sun Mar 24 12:59:27 2019.
