 Gaussian 09, Revision D.01,
 Gaussian 09:  ES64L-G09RevD.01 24-Apr-2013

 --------------------------------------------------------------
 #p B3LYP/6-31G* em=gd3 irc(calcfc,LQA,stepsize=10,maxpoint=20)
 --------------------------------------------------------------

 -----
 Title
 -----
 Symbolic Z-matrix:
 Charge = -1 Multiplicity = 1

 SCF Done:  E(RB3LYP) =  -3071.88537627     A.U. after   15 cycles
 SCF Done:  E(RB3LYP) =  -3071.88562314     A.U. after   12 cycles
 SCF Done:  E(RB3LYP) =  -3071.88631868     A.U. after   12 cycles
 SCF Done:  E(RB3LYP) =  -3071.88737729     A.U. after   12 cycles
 SCF Done:  E(RB3LYP) =  -3071.88865760     A.U. after   13 cycles
 SCF Done:  E(RB3LYP) =  -3071.89000803     A.U. after   13 cycles
 SCF Done:  E(RB3LYP) =  -3071.89126504     A.U. after   13 cycles
 SCF Done:  E(RB3LYP) =  -3071.89224607     A.U. after   12 cycles
 SCF Done:  E(RB3LYP) =  -3071.89267351     A.U. after   12 cycles
 SCF Done:  E(RB3LYP) =  -3071.89277094     A.U. after   12 cycles
 SCF Done:  E(RB3LYP) =  -3071.89045738     A.U. after   13 cycles
 SCF Done:  E(RB3LYP) =  -3071.89205132     A.U. after   12 cycles
 SCF Done:  E(RB3LYP) =  -3071.89339691     A.U. after   12 cycles
 SCF Done:  E(RB3LYP) =  -3071.89414130     A.U. after   12 cycles
 SCF Done:  E(RB3LYP) =  -3071.89437001     A.U. after   12 cycles
 SCF Done:  E(RB3LYP) =  -3071.89496440     A.U. after   11 cycles
 SCF Done:  E(RB3LYP) =  -3071.89528359     A.U. after   11 cycles
 SCF Done:  E(RB3LYP) =  -3071.89549517     A.U. after   11 cycles
 SCF Done:  E(RB3LYP) =  -3071.89564399     A.U. after   11 cycles
 SCF Done:  E(RB3LYP) =  -3071.89569565     A.U. after   11 cycles

                          Input orientation:
 ---------------------------------------------------------------------
 Center     Atomic      Atomic             Coordinates (Angstroms)
 Number     Number       Type             X           Y           Z
 ---------------------------------------------------------------------
      1          6           0        1.430177    0.006488   -0.003123
      2          1           0        1.090639    0.086585    1.025741
      3          1           0        1.096888    0.859318   -0.585694
      4          1           0        1.085014   -0.922512   -0.449704
      5         17           0        3.300013   -0.001051   -0.003036
      6         35           0       -1.721500   -0.000820    0.001943
 ---------------------------------------------------------------------

 Alpha  occ. eigenvalues -- -482.59823-101.39287 -61.56054 -56.07973 -56.07926
 Alpha  occ. eigenvalues --  -56.07926 -10.08749  -9.30922  -8.27121  -7.07224
 Alpha  occ. eigenvalues --   -7.06387  -7.06387  -6.21764  -6.21657  -6.21656
 Alpha  occ. eigenvalues --   -2.33465  -2.33438  -2.33437  -2.33351  -2.33351
 Alpha  occ. eigenvalues --   -0.69207  -0.52812  -0.44228  -0.29108  -0.29059
 Alpha  occ. eigenvalues --   -0.25638  -0.16101  -0.16098  -0.01676  -0.01428
 Alpha  occ. eigenvalues --   -0.01426
 Alpha virt. eigenvalues --    0.16384   0.26504   0.30560   0.30564   0.47801
 Alpha virt. eigenvalues --    0.52461   0.58724   0.58734   0.59531   0.66328
 Alpha virt. eigenvalues --    0.66382   0.67095   0.74757   0.74770   0.74960

 Mulliken charges:
               1
     1  C   -0.465051
     2  H    0.206064
     3  H    0.205441
     4  H    0.206374
     5  Cl  -0.251008
     6  Br  -0.901821
 Sum of Mulliken charges =  -1.00000

 Dipole moment (field-independent basis, Debye):
    X=              3.2091    Y=              0.0122    Z=             -0.0067  Tot=              3.2092
 Quadrupole moment (field-independent basis, Debye-Ang):
   XX=            -71.2468   YY=            -41.3981   ZZ=            -41.3965
   XY=              0.0128   XZ=              0.0269   YZ=              0.0007

  Exact polarizability:   0.000   0.000   0.000   0.000   0.000   0.000
 Approx polarizability: 108.714  -0.027  42.200  -0.059   0.012  42.202

 Normal termination of Gaussian 09 at Mon Mar 25 15:49:32 2019.
