 Gaussian 09, Revision D.01,
 Gaussian 09:  ES64L-G09RevD.01 24-Apr-2013

 ----------------------------------
 # B3LYP/6-31G* em=gd3 nosymm force
 ----------------------------------

 -----
 Title
 -----
 Symbolic Z-matrix:
 Charge = -1 Multiplicity = 1

                          Input orientation:
 ---------------------------------------------------------------------
 Center     Atomic      Atomic             Coordinates (Angstroms)
 Number     Number       Type             X           Y           Z
 ---------------------------------------------------------------------
      1          6           0        0.773343    0.000406    0.000047
      2          1           0        0.768123    0.076412    1.071927
      3          1           0        0.768113    0.892143   -0.600117
      4          1           0        0.768232   -0.965314   -0.469776
      5         17           0        3.151635   -0.000170   -0.000069
      6         35           0       -1.729209   -0.000080   -0.000033
 ---------------------------------------------------------------------

 SCF Done:  E(RB3LYP) =  -3071.88537627     A.U. after   15 cycles

 Alpha  occ. eigenvalues -- -482.67116-101.29895 -61.63363 -56.15349 -56.15179
 Alpha  occ. eigenvalues --  -56.15179 -10.09275  -9.21269  -8.34462  -6.97324
 Alpha  occ. eigenvalues --   -6.96901  -6.96901  -6.29392  -6.28842  -6.28842
 Alpha  occ. eigenvalues --   -2.41036  -2.40890  -2.40889  -2.40452  -2.40452
 Alpha  occ. eigenvalues --   -0.58084  -0.53727  -0.49539  -0.29240  -0.29193
 Alpha  occ. eigenvalues --   -0.15189  -0.08914  -0.08912  -0.07476  -0.07473
 Alpha  occ. eigenvalues --   -0.06973
 Alpha virt. eigenvalues --    0.12589   0.24969   0.31724   0.31756   0.45448
 Alpha virt. eigenvalues --    0.56997   0.61414   0.61436   0.64243   0.65036
 Alpha virt. eigenvalues --    0.65041   0.68740   0.68750   0.69851   0.69870

 Mulliken charges:
               1
     1  C   -0.365008
     2  H    0.214913
     3  H    0.214887
     4  H    0.215158
     5  Cl  -0.645768
     6  Br  -0.634182
 Sum of Mulliken charges =  -1.00000

 Dipole moment (field-independent basis, Debye):
    X=             -3.5749    Y=              0.0018    Z=              0.0005  Tot=              3.5749
 Quadrupole moment (field-independent basis, Debye-Ang):
   XX=            -82.4130   YY=            -41.2601   ZZ=            -41.2676
   XY=              0.0020   XZ=              0.0013   YZ=              0.0010

 Normal termination of Gaussian 09 at Sun Mar 24 13:38:24 2019.
